% Model:              spherical_case.mph
% Version:            COMSOL 6.2.0.339
% Date:               Nov 15 2024, 13:24
% Dimension:          1
% Nodes:              97
% Expressions:        1
% Description:        Global
% freq (Hz)               \sigma_spherical, 
80                        0.009994624572282014
100                       0.01566320566068382
120                       0.022569527740855033
140                       0.030710212345754478
160                       0.04008622975296237
180                       0.05070348502502366
200                       0.06257243557582798
220                       0.0757062030091905
240                       0.09011688725051478
260                       0.10581007074867763
280                       0.12277781872829957
300                       0.1409908435826391
320                       0.16039088815267016
340                       0.18088473198822477
360                       0.20234142484582238
380                       0.22459425833769694
400                       0.24744847609530332
420                       0.27069477183441887
440                       0.2941273808656517
460                       0.3175643579406136
480                       0.3408668571563401
500                       0.36395419731359174
520                       0.3868122601484796
540                       0.4094940781651228
560                       0.43211288189135916
580                       0.45482896537783507
600                       0.4778322545790133
620                       0.5013224347907547
640                       0.5254881084551809
660                       0.550485985054316
680                       0.5764207926857935
700                       0.6033265999694299
720                       0.6311505912677069
740                       0.6597409755031443
760                       0.6888414327020986
780                       0.7180949915361952
800                       0.7470600778179514
820                       0.7752403006201513
840                       0.8021272063853974
860                       0.8272520485901765
880                       0.8502394595637975
900                       0.8708539860057166
920                       0.8890307951351445
940                       0.904884724072901
960                       0.918696416995
980                       0.9308790056881333
1000                      0.9419320761056483
1020                      0.952390692139641
1040                      0.9627761725719848
1060                      0.9735530083586511
1080                      0.9850938235130564
1100                      0.9976524329191087
1120                      1.0113442155861583
1140                      1.0261331979143793
1160                      1.0418261668311106
1180                      1.0580753930225681
1200                      1.0743926233263361
1220                      1.0901773164287134
1240                      1.1047610980357496
1260                      1.1174677993002404
1280                      1.127684460183848
1300                      1.134934332085466
1320                      1.1389398413029646
1340                      1.139663338018934
1360                      1.137317021912024
1380                      1.1323399171980992
1400                      1.1253469813613155
1420                      1.1170608169362868
1440                      1.1082383609274324
1460                      1.0996032929981336
1480                      1.0917910198059704
1500                      1.0853087351983854
1520                      1.080509651271429
1540                      1.077578724471197
1560                      1.07652705614778
1580                      1.077193206165583
1600                      1.0792513389717953
1620                      1.0822278106255072
1640                      1.085528887078502
1660                      1.0884821696881528
1680                      1.0903925561450154
1700                      1.0906101561825512
1720                      1.0886031827397837
1740                      1.0840249024561401
1760                      1.0767621018834022
1780                      1.0669545822811088
1800                      1.054980902265677
1820                      1.0414131855587845
1840                      1.0269505320582133
1860                      1.0123440380731155
1880                      0.9983258314259067
1900                      0.9855507964934335
1920                      0.9745547246715603
1940                      0.9657283189454953
1960                      0.9593038775179138
1980                      0.9553507796862625
2000                      0.9537767136711409
