% Model:              cubic_case.mph
% Version:            COMSOL 6.2.0.339
% Date:               Nov 15 2024, 13:18
% Dimension:          1
% Nodes:              97
% Expressions:        1
% Description:        Global
% freq (Hz)               \sigma_spherical, 
80                        0.010552321576685349
100                       0.016490489944242633
120                       0.023678957569029487
140                       0.03209663721193437
160                       0.04172093685119607
180                       0.05252640053585918
200                       0.0644850942465669
220                       0.07756706458618523
240                       0.09174060268097606
260                       0.10697234965581885
280                       0.12322731203560781
300                       0.14046883521529385
320                       0.15865856197097022
340                       0.17775638925229514
360                       0.19772042905605328
380                       0.21850697568121796
400                       0.24007048033668021
420                       0.262363533814979
440                       0.285336858185985
460                       0.30893930886498483
480                       0.33311788884400984
500                       0.35781777724563574
520                       0.3829823746360037
540                       0.4085533676978228
560                       0.4344708159042388
580                       0.4606732627374713
600                       0.4870978737701766
620                       0.5136806035629484
640                       0.540356392835771
660                       0.5670593967479487
680                       0.5937232443872676
700                       0.6202813287353266
720                       0.6466671254613641
740                       0.6728145379398339
760                       0.6986582649061599
780                       0.7241341862001024
800                       0.7491797611464519
820                       0.7737344333035889
840                       0.7977400346483985
860                       0.8211411817576884
880                       0.8438856562543127
900                       0.8659247617256867
920                       0.8872136495053684
940                       0.9077116061486403
960                       0.9273822961215111
980                       0.9461939541457068
1000                      0.9641195227718377
1020                      0.9811367320480905
1040                      0.9972281195734622
1060                      1.0123809907170995
1080                      1.0265873202948468
1100                      1.0398435984715724
1120                      1.0521506250325168
1140                      1.063513257417046
1160                      1.0739401189817568
1180                      1.0834432747977019
1200                      1.092037882932024
1220                      1.0997418295198937
1240                      1.106575356074385
1260                      1.1125606873611351
1280                      1.117721667823445
1300                      1.122083413983675
1320                      1.1256719895352143
1340                      1.1285141089298194
1360                      1.1306368742855455
1380                      1.1320675493461576
1400                      1.132833373077444
1420                      1.1329614143433244
1440                      1.1324784679423756
1460                      1.1314109911852723
1480                      1.1297850791515331
1500                      1.1276264757982428
1520                      1.1249606172574589
1540                      1.1218127029225982
1560                      1.118207789341702
1580                      1.1141709014945727
1600                      1.1097271557432054
1620                      1.104901888609458
1640                      1.099720785581447
1660                      1.0942100043037848
1680                      1.088396286859215
1700                      1.0823070563005137
1720                      1.0759704931667977
1740                      1.0694155884185783
1760                      1.062672169972029
1780                      1.055770900846832
1800                      1.0487432477844019
1820                      1.041621420057778
1840                      1.0344382790306166
1860                      1.027227219810789
1880                      1.0200220270694598
1900                      1.0128567077381303
1920                      1.0057653038126266
1940                      0.998781688922073
1960                      0.9919393525981198
1980                      0.9852711763576539
2000                      0.9788092057372864
